<?xml version="1.0"?>
<VTKFile type="UnstructuredGrid"  version="0.1"  >
<UnstructuredGrid>
<Piece  NumberOfPoints="1089" NumberOfCells="2048">
<Points>
<DataArray  type="Float64"  NumberOfComponents="3"  format="ascii">0 0 0  0.03125 0 0  0.0625 0 0  0.09375 0 0  0.125 0 0  0.15625 0 0  0.1875 0 0  0.21875 0 0  0.25 0 0  0.28125 0 0  0.3125 0 0  0.34375 0 0  0.375 0 0  0.40625 0 0  0.4375 0 0  0.46875 0 0  0.5 0 0  0.53125 0 0  0.5625 0 0  0.59375 0 0  0.625 0 0  0.65625 0 0  0.6875 0 0  0.71875 0 0  0.75 0 0  0.78125 0 0  0.8125 0 0  0.84375 0 0  0.875 0 0  0.90625 0 0  0.9375 0 0  0.96875 0 0  1 0 0  0 0.03125 0  0.03125 0.03125 0  0.0625 0.03125 0  0.09375 0.03125 0  0.125 0.03125 0  0.15625 0.03125 0  0.1875 0.03125 0  0.21875 0.03125 0  0.25 0.03125 0  0.28125 0.03125 0  0.3125 0.03125 0  0.34375 0.03125 0  0.375 0.03125 0  0.40625 0.03125 0  0.4375 0.03125 0  0.46875 0.03125 0  0.5 0.03125 0  0.53125 0.03125 0  0.5625 0.03125 0  0.59375 0.03125 0  0.625 0.03125 0  0.65625 0.03125 0  0.6875 0.03125 0  0.71875 0.03125 0  0.75 0.03125 0  0.78125 0.03125 0  0.8125 0.03125 0  0.84375 0.03125 0  0.875 0.03125 0  0.90625 0.03125 0  0.9375 0.03125 0  0.96875 0.03125 0  1 0.03125 0  0 0.0625 0  0.03125 0.0625 0  0.0625 0.0625 0  0.09375 0.0625 0  0.125 0.0625 0  0.15625 0.0625 0  0.1875 0.0625 0  0.21875 0.0625 0  0.25 0.0625 0  0.28125 0.0625 0  0.3125 0.0625 0  0.34375 0.0625 0  0.375 0.0625 0  0.40625 0.0625 0  0.4375 0.0625 0  0.46875 0.0625 0  0.5 0.0625 0  0.53125 0.0625 0  0.5625 0.0625 0  0.59375 0.0625 0  0.625 0.0625 0  0.65625 0.0625 0  0.6875 0.0625 0  0.71875 0.0625 0  0.75 0.0625 0  0.78125 0.0625 0  0.8125 0.0625 0  0.84375 0.0625 0  0.875 0.0625 0  0.90625 0.0625 0  0.9375 0.0625 0  0.96875 0.0625 0  1 0.0625 0  0 0.09375 0  0.03125 0.09375 0  0.0625 0.09375 0  0.09375 0.09375 0  0.125 0.09375 0  0.15625 0.09375 0  0.1875 0.09375 0  0.21875 0.09375 0  0.25 0.09375 0  0.28125 0.09375 0  0.3125 0.09375 0  0.34375 0.09375 0  0.375 0.09375 0  0.40625 0.09375 0  0.4375 0.09375 0  0.46875 0.09375 0  0.5 0.09375 0  0.53125 0.09375 0  0.5625 0.09375 0  0.59375 0.09375 0  0.625 0.09375 0  0.65625 0.09375 0  0.6875 0.09375 0  0.71875 0.09375 0  0.75 0.09375 0  0.78125 0.09375 0  0.8125 0.09375 0  0.84375 0.09375 0  0.875 0.09375 0  0.90625 0.09375 0  0.9375 0.09375 0  0.96875 0.09375 0  1 0.09375 0  0 0.125 0  0.03125 0.125 0  0.0625 0.125 0  0.09375 0.125 0  0.125 0.125 0  0.15625 0.125 0  0.1875 0.125 0  0.21875 0.125 0  0.25 0.125 0  0.28125 0.125 0  0.3125 0.125 0  0.34375 0.125 0  0.375 0.125 0  0.40625 0.125 0  0.4375 0.125 0  0.46875 0.125 0  0.5 0.125 0  0.53125 0.125 0  0.5625 0.125 0  0.59375 0.125 0  0.625 0.125 0  0.65625 0.125 0  0.6875 0.125 0  0.71875 0.125 0  0.75 0.125 0  0.78125 0.125 0  0.8125 0.125 0  0.84375 0.125 0  0.875 0.125 0  0.90625 0.125 0  0.9375 0.125 0  0.96875 0.125 0  1 0.125 0  0 0.15625 0  0.03125 0.15625 0  0.0625 0.15625 0  0.09375 0.15625 0  0.125 0.15625 0  0.15625 0.15625 0  0.1875 0.15625 0  0.21875 0.15625 0  0.25 0.15625 0  0.28125 0.15625 0  0.3125 0.15625 0  0.34375 0.15625 0  0.375 0.15625 0  0.40625 0.15625 0  0.4375 0.15625 0  0.46875 0.15625 0  0.5 0.15625 0  0.53125 0.15625 0  0.5625 0.15625 0  0.59375 0.15625 0  0.625 0.15625 0  0.65625 0.15625 0  0.6875 0.15625 0  0.71875 0.15625 0  0.75 0.15625 0  0.78125 0.15625 0  0.8125 0.15625 0  0.84375 0.15625 0  0.875 0.15625 0  0.90625 0.15625 0  0.9375 0.15625 0  0.96875 0.15625 0  1 0.15625 0  0 0.1875 0  0.03125 0.1875 0  0.0625 0.1875 0  0.09375 0.1875 0  0.125 0.1875 0  0.15625 0.1875 0  0.1875 0.1875 0  0.21875 0.1875 0  0.25 0.1875 0  0.28125 0.1875 0  0.3125 0.1875 0  0.34375 0.1875 0  0.375 0.1875 0  0.40625 0.1875 0  0.4375 0.1875 0  0.46875 0.1875 0  0.5 0.1875 0  0.53125 0.1875 0  0.5625 0.1875 0  0.59375 0.1875 0  0.625 0.1875 0  0.65625 0.1875 0  0.6875 0.1875 0  0.71875 0.1875 0  0.75 0.1875 0  0.78125 0.1875 0  0.8125 0.1875 0  0.84375 0.1875 0  0.875 0.1875 0  0.90625 0.1875 0  0.9375 0.1875 0  0.96875 0.1875 0  1 0.1875 0  0 0.21875 0  0.03125 0.21875 0  0.0625 0.21875 0  0.09375 0.21875 0  0.125 0.21875 0  0.15625 0.21875 0  0.1875 0.21875 0  0.21875 0.21875 0  0.25 0.21875 0  0.28125 0.21875 0  0.3125 0.21875 0  0.34375 0.21875 0  0.375 0.21875 0  0.40625 0.21875 0  0.4375 0.21875 0  0.46875 0.21875 0  0.5 0.21875 0  0.53125 0.21875 0  0.5625 0.21875 0  0.59375 0.21875 0  0.625 0.21875 0  0.65625 0.21875 0  0.6875 0.21875 0  0.71875 0.21875 0  0.75 0.21875 0  0.78125 0.21875 0  0.8125 0.21875 0  0.84375 0.21875 0  0.875 0.21875 0  0.90625 0.21875 0  0.9375 0.21875 0  0.96875 0.21875 0  1 0.21875 0  0 0.25 0  0.03125 0.25 0  0.0625 0.25 0  0.09375 0.25 0  0.125 0.25 0  0.15625 0.25 0  0.1875 0.25 0  0.21875 0.25 0  0.25 0.25 0  0.28125 0.25 0  0.3125 0.25 0  0.34375 0.25 0  0.375 0.25 0  0.40625 0.25 0  0.4375 0.25 0  0.46875 0.25 0  0.5 0.25 0  0.53125 0.25 0  0.5625 0.25 0  0.59375 0.25 0  0.625 0.25 0  0.65625 0.25 0  0.6875 0.25 0  0.71875 0.25 0  0.75 0.25 0  0.78125 0.25 0  0.8125 0.25 0  0.84375 0.25 0  0.875 0.25 0  0.90625 0.25 0  0.9375 0.25 0  0.96875 0.25 0  1 0.25 0  0 0.28125 0  0.03125 0.28125 0  0.0625 0.28125 0  0.09375 0.28125 0  0.125 0.28125 0  0.15625 0.28125 0  0.1875 0.28125 0  0.21875 0.28125 0  0.25 0.28125 0  0.28125 0.28125 0  0.3125 0.28125 0  0.34375 0.28125 0  0.375 0.28125 0  0.40625 0.28125 0  0.4375 0.28125 0  0.46875 0.28125 0  0.5 0.28125 0  0.53125 0.28125 0  0.5625 0.28125 0  0.59375 0.28125 0  0.625 0.28125 0  0.65625 0.28125 0  0.6875 0.28125 0  0.71875 0.28125 0  0.75 0.28125 0  0.78125 0.28125 0  0.8125 0.28125 0  0.84375 0.28125 0  0.875 0.28125 0  0.90625 0.28125 0  0.9375 0.28125 0  0.96875 0.28125 0  1 0.28125 0  0 0.3125 0  0.03125 0.3125 0  0.0625 0.3125 0  0.09375 0.3125 0  0.125 0.3125 0  0.15625 0.3125 0  0.1875 0.3125 0  0.21875 0.3125 0  0.25 0.3125 0  0.28125 0.3125 0  0.3125 0.3125 0  0.34375 0.3125 0  0.375 0.3125 0  0.40625 0.3125 0  0.4375 0.3125 0  0.46875 0.3125 0  0.5 0.3125 0  0.53125 0.3125 0  0.5625 0.3125 0  0.59375 0.3125 0  0.625 0.3125 0  0.65625 0.3125 0  0.6875 0.3125 0  0.71875 0.3125 0  0.75 0.3125 0  0.78125 0.3125 0  0.8125 0.3125 0  0.84375 0.3125 0  0.875 0.3125 0  0.90625 0.3125 0  0.9375 0.3125 0  0.96875 0.3125 0  1 0.3125 0  0 0.34375 0  0.03125 0.34375 0  0.0625 0.34375 0  0.09375 0.34375 0  0.125 0.34375 0  0.15625 0.34375 0  0.1875 0.34375 0  0.21875 0.34375 0  0.25 0.34375 0  0.28125 0.34375 0  0.3125 0.34375 0  0.34375 0.34375 0  0.375 0.34375 0  0.40625 0.34375 0  0.4375 0.34375 0  0.46875 0.34375 0  0.5 0.34375 0  0.53125 0.34375 0  0.5625 0.34375 0  0.59375 0.34375 0  0.625 0.34375 0  0.65625 0.34375 0  0.6875 0.34375 0  0.71875 0.34375 0  0.75 0.34375 0  0.78125 0.34375 0  0.8125 0.34375 0  0.84375 0.34375 0  0.875 0.34375 0  0.90625 0.34375 0  0.9375 0.34375 0  0.96875 0.34375 0  1 0.34375 0  0 0.375 0  0.03125 0.375 0  0.0625 0.375 0  0.09375 0.375 0  0.125 0.375 0  0.15625 0.375 0  0.1875 0.375 0  0.21875 0.375 0  0.25 0.375 0  0.28125 0.375 0  0.3125 0.375 0  0.34375 0.375 0  0.375 0.375 0  0.40625 0.375 0  0.4375 0.375 0  0.46875 0.375 0  0.5 0.375 0  0.53125 0.375 0  0.5625 0.375 0  0.59375 0.375 0  0.625 0.375 0  0.65625 0.375 0  0.6875 0.375 0  0.71875 0.375 0  0.75 0.375 0  0.78125 0.375 0  0.8125 0.375 0  0.84375 0.375 0  0.875 0.375 0  0.90625 0.375 0  0.9375 0.375 0  0.96875 0.375 0  1 0.375 0  0 0.40625 0  0.03125 0.40625 0  0.0625 0.40625 0  0.09375 0.40625 0  0.125 0.40625 0  0.15625 0.40625 0  0.1875 0.40625 0  0.21875 0.40625 0  0.25 0.40625 0  0.28125 0.40625 0  0.3125 0.40625 0  0.34375 0.40625 0  0.375 0.40625 0  0.40625 0.40625 0  0.4375 0.40625 0  0.46875 0.40625 0  0.5 0.40625 0  0.53125 0.40625 0  0.5625 0.40625 0  0.59375 0.40625 0  0.625 0.40625 0  0.65625 0.40625 0  0.6875 0.40625 0  0.71875 0.40625 0  0.75 0.40625 0  0.78125 0.40625 0  0.8125 0.40625 0  0.84375 0.40625 0  0.875 0.40625 0  0.90625 0.40625 0  0.9375 0.40625 0  0.96875 0.40625 0  1 0.40625 0  0 0.4375 0  0.03125 0.4375 0  0.0625 0.4375 0  0.09375 0.4375 0  0.125 0.4375 0  0.15625 0.4375 0  0.1875 0.4375 0  0.21875 0.4375 0  0.25 0.4375 0  0.28125 0.4375 0  0.3125 0.4375 0  0.34375 0.4375 0  0.375 0.4375 0  0.40625 0.4375 0  0.4375 0.4375 0  0.46875 0.4375 0  0.5 0.4375 0  0.53125 0.4375 0  0.5625 0.4375 0  0.59375 0.4375 0  0.625 0.4375 0  0.65625 0.4375 0  0.6875 0.4375 0  0.71875 0.4375 0  0.75 0.4375 0  0.78125 0.4375 0  0.8125 0.4375 0  0.84375 0.4375 0  0.875 0.4375 0  0.90625 0.4375 0  0.9375 0.4375 0  0.96875 0.4375 0  1 0.4375 0  0 0.46875 0  0.03125 0.46875 0  0.0625 0.46875 0  0.09375 0.46875 0  0.125 0.46875 0  0.15625 0.46875 0  0.1875 0.46875 0  0.21875 0.46875 0  0.25 0.46875 0  0.28125 0.46875 0  0.3125 0.46875 0  0.34375 0.46875 0  0.375 0.46875 0  0.40625 0.46875 0  0.4375 0.46875 0  0.46875 0.46875 0  0.5 0.46875 0  0.53125 0.46875 0  0.5625 0.46875 0  0.59375 0.46875 0  0.625 0.46875 0  0.65625 0.46875 0  0.6875 0.46875 0  0.71875 0.46875 0  0.75 0.46875 0  0.78125 0.46875 0  0.8125 0.46875 0  0.84375 0.46875 0  0.875 0.46875 0  0.90625 0.46875 0  0.9375 0.46875 0  0.96875 0.46875 0  1 0.46875 0  0 0.5 0  0.03125 0.5 0  0.0625 0.5 0  0.09375 0.5 0  0.125 0.5 0  0.15625 0.5 0  0.1875 0.5 0  0.21875 0.5 0  0.25 0.5 0  0.28125 0.5 0  0.3125 0.5 0  0.34375 0.5 0  0.375 0.5 0  0.40625 0.5 0  0.4375 0.5 0  0.46875 0.5 0  0.5 0.5 0  0.53125 0.5 0  0.5625 0.5 0  0.59375 0.5 0  0.625 0.5 0  0.65625 0.5 0  0.6875 0.5 0  0.71875 0.5 0  0.75 0.5 0  0.78125 0.5 0  0.8125 0.5 0  0.84375 0.5 0  0.875 0.5 0  0.90625 0.5 0  0.9375 0.5 0  0.96875 0.5 0  1 0.5 0  0 0.53125 0  0.03125 0.53125 0  0.0625 0.53125 0  0.09375 0.53125 0  0.125 0.53125 0  0.15625 0.53125 0  0.1875 0.53125 0  0.21875 0.53125 0  0.25 0.53125 0  0.28125 0.53125 0  0.3125 0.53125 0  0.34375 0.53125 0  0.375 0.53125 0  0.40625 0.53125 0  0.4375 0.53125 0  0.46875 0.53125 0  0.5 0.53125 0  0.53125 0.53125 0  0.5625 0.53125 0  0.59375 0.53125 0  0.625 0.53125 0  0.65625 0.53125 0  0.6875 0.53125 0  0.71875 0.53125 0  0.75 0.53125 0  0.78125 0.531
[...]
<PointData  Scalars="u"> 
<DataArray  type="Float64"  Name="u"  format="ascii">2.9184248636573784e-01  2.9502321519510133e-01  3.2979770999583025e-01  3.8091265828239784e-01  4.3397706539968794e-01  4.8000621899035423e-01  5.1306715940472714e-01  5.2953035316491537e-01  5.2750021691556981e-01  5.0641420033915097e-01  4.6676230796614959e-01  4.0986925666271645e-01  3.3771857347745993e-01  2.5280567056488223e-01  1.5801205667651885e-01  5.6495459192429820e-02  -4.8408456930211730e-02  -1.5327673648554097e-01  -2.5468607483251304e-01  -3.4929996345326231e-01  -4.3395995318044811e-01  -5.0578482830914595e-01  -5.6228150306711200e-01  -6.0147164974583234e-01  -6.2203957694754308e-01  -6.2350929666314414e-01  -6.0646265356308504e-01  -5.7283585815804372e-01  -5.2629731570971217e-01  -4.7289940184452917e-01  -4.2219678386464921e-01  -3.8737250302153825e-01  -3.8647636462530954e-01  2.8877234758772374e-01  2.9186796243675417e-01  3.1717680757628841e-01  3.5368353419613641e-01  3.9259550641020269e-01  4.2684293107589610e-01  4.5125405733710977e-01  4.6246000897710360e-01  4.5853066056801595e-01  4.3871098456077107e-01  4.0320166460591622e-01  3.5297708445472153e-01  2.8963226582037294e-01  2.1525087807414423e-01  1.3228938279809199e-01  4.3473485644078380e-02  -4.8296412037144562e-02  -1.4003387690558355e-01  -2.2875226254609515e-01  -3.1155069126637613e-01  -3.8570323973183918e-01  -4.4875435208510339e-01  -4.9862345300223865e-01  -5.3372176984260022e-01  -5.5308546690284288e-01  -5.5653004270635620e-01  -5.4483438437983978e-01  -5.1996658474683954e-01  -4.8536032475311686e-01  -4.4630148949255499e-01  -4.1012975768813931e-01  -3.8646701768180947e-01  -3.8561852805412400e-01  2.5398384062708601e-01  2.6639570605914287e-01  2.9200912114532684e-01  3.2369942453578915e-01  3.5601266317991076e-01  3.8374468536505901e-01  4.0294995497021091e-01  4.1086511539953108e-01  4.0580869484853110e-01  3.8705999882344599e-01  3.5471479896943947e-01  3.0955205117265905e-01  2.5291129624697817e-01  1.8658098288427993e-01  1.1269659428062795e-01  3.3646799981056574e-02  -4.8014312530120264e-02  -1.2965100371140181e-01  -2.0862769797674474e-01  -2.8239084527253056e-01  -3.4855295238232031e-01  -4.0498105679506580e-01  -4.4989172367735364e-01  -4.8195418287698999e-01  -5.0040368483516318e-01  -5.0516623919622816e-01  -4.9699505559203772e-01  -4.7761801689870254e-01  -4.4988001303164538e-01  -4.1785899392976944e-01  -3.8673612342711294e-01  -3.6270596955642986e-01  -3.5075911564598528e-01  2.0168064391475582e-01  2.2893786522024584e-01  2.6077747408999130e-01  2.9360725888352590e-01  3.2430173902383785e-01  3.4939797155647057e-01  3.6611483444340820e-01  3.7236827120085536e-01  3.6686543686448658e-01  3.4905944700622626e-01  3.1907313361932665e-01  2.7761118005602725e-01  2.2586803210054995e-01  1.6543796639530228e-01  9.8228905651261300e-02  2.6380107192562008e-02  -4.7816944586599214e-02  -1.2199548109029834e-01  -1.9378928831450537e-01  -2.6090840528473791e-01  -3.2121590912073827e-01  -3.7280732989884768e-01  -4.1409394603064698e-01  -4.4389027393702918e-01  -4.6150596977170721e-01  -4.6683968812263288e-01  -4.6046967850662668e-01  -4.4373167636678090e-01  -4.1875682171126982e-01  -3.8844172751396400e-01  -3.5619337716167365e-01  -3.2568780314096557e-01  -2.9897697398382661e-01  1.4447246372969857e-01  1.8720465739431802e-01  2.2809622681847941e-01  2.6567385904024832e-01  2.9820636233853293e-01  3.2354865156912638e-01  3.3986963152881344e-01  3.4575484073280904e-01  3.4034764542849416e-01  3.2335216318367088e-01  2.9500865122190589e-01  2.5603981655615371e-01  2.0758541022091492e-01  1.5113237709137195e-01  8.8444044595433979e-02  2.1489772342395241e-02  -4.7624617543675668e-02  -1.1672578380430565e-01  -1.8364139243251287e-01  -2.4626831311022102e-01  -3.0264092104866336e-01  -3.5100043197917330e-01  -3.8986584930128743e-01  -4.1810585043441506e-01  -4.3501062504842025e-01  -4.4035895272185144e-01  -4.3447250495751177e-01  -4.1824503299932303e-01  -3.9312079355897822e-01  -3.6099966474296252e-01  -3.2396493701548934e-01  -2.8402139044499108e-01  -2.4167278712468487e-01  8.9621845329361349e-02  1.4726409491862569e-01  1.9851876301146376e-01  2.4284289769627776e-01  2.7934536391359188e-01  3.0681207661803001e-01  3.2415003595656344e-01  3.3052800721492304e-01  3.2550721472455280e-01  3.0907378988956680e-01  2.8163958244448395e-01  2.4401110385088032e-01  1.9734431373368011e-01  1.4309093449791987e-01  8.2941073616439098e-02  1.8764036286157193e-02  -4.7451636186250187e-02  -1.1365844503526290e-01  -1.7781024470173179e-01  -2.3792210923919299e-01  -2.9212967208712826e-01  -3.3874840308365606e-01  -3.7633287766308854e-01  -4.0373472335434712e-01  -4.2015777573857349e-01  -4.2520496161694155e-01  -4.1890852946471568e-01  -4.0173237533520023e-01  -3.7452617730764359e-01  -3.3841809906004983e-01  -2.9458105556801684e-01  -2.4402582566148112e-01  -1.8665830754554236e-01  4.1874570346919882e-02  1.1368669771775330e-01  1.7573084332565259e-01  2.2780880074321885e-01  2.6952040818434853e-01  3.0025017934303833e-01  3.1945189136342833e-01  3.2677274532500178e-01  3.2215355675120350e-01  3.0586748478836512e-01  2.7852857584261415e-01  2.4107385510117751e-01  1.9473079053662445e-01  1.4097515098133329e-01  8.1484213728415966e-02  1.8087217075752449e-02  -4.7285375631357332e-02  -1.1265310815353047e-01  -1.7603692076447430e-01  -2.3551018749316199e-01  -2.8924913417162657e-01  -3.3558283103266717e-01  -3.7304237478502955e-01  -4.0040750913635748e-01  -4.1674932330141701e-01  -4.2146388792838252e-01  -4.1428966953714053e-01  -3.9530019803248706e-01  -3.6485736190826401e-01  -3.2352022156328530e-01  -2.7186879640908046e-01  -2.1037410352067809e-01  -1.3878197452157792e-01  4.4768745933083665e-03  8.9879787388156274e-02  1.6280840500007798e-01  2.2312480228680442e-01  2.7068459584910443e-01  3.0525126808078085e-01  3.2668336108474705e-01  3.3501543523505006e-01  3.3052672101496228e-01  3.1377117663296872e-01  2.8558357389405842e-01  2.4706589489355224e-01  1.9956080635969897e-01  1.4461662307489576e-01  8.3948069013288773e-02  1.9394713443070088e-02  -4.7121075049112317e-02  -1.1363604196263566e-01  -1.7818796863029718e-01  -2.3885753974603574e-01  -2.9381011575020466e-01  -3.4133750003320529e-01  -3.7989894333756524e-01  -4.0815932451602066e-01  -4.2502361140662970e-01  -4.2966342841754113e-01  -4.2153048539881866e-01  -4.0035131679883307e-01  -3.6609303238714119e-01  -3.1890032957380754e-01  -2.5897599388781600e-01  -1.8651692047103552e-01  -1.0130123370339561e-01  -2.0110159457885857e-02  7.8599811527624297e-02  1.6243934828275997e-01  2.3119541510828867e-01  2.8485100054280110e-01  3.2341684977723162e-01  3.4705707419948340e-01  3.5612789758317831e-01  3.5121618297046098e-01  3.3315239988812095e-01  3.0300758112656467e-01  2.6207706096090533e-01  2.1185476461653252e-01  1.5400147517976848e-01  9.0310708638597248e-02  2.2673860695000769e-02  -4.6953535159380305e-02  -1.1658424600764761e-01  -1.8423141631171802e-01  -2.4794102096704762e-01  -3.0582514905091784e-01  -3.5609631878617165e-01  -3.9710187809595254e-01  -4.2735631055148815e-01  -4.4557122194481735e-01  -4.5067999932365410e-01  -4.4185373929678917e-01  -4.1850537841509095e-01  -3.8027424522880438e-01  -3.2699431542533830e-01  -2.5862241803486086e-01  -1.7522656884750631e-01  -7.6693612427106927e-02  -2.9746393277889638e-02  8.2298924665167306e-02  1.7712337759809316e-01  2.5438363733132974e-01  3.1412848159357054e-01  3.5654350737831919e-01  3.8204222056106119e-01  3.9126703602681800e-01  3.8509902117169759e-01  3.6465020193816144e-01  3.3124669783293825e-01  2.8640451886928986e-01  2.3180055752618500e-01  1.6924139863436949e-01  1.0063292184456429e-01  2.7951682319560689e-02  -4.6780591170079010e-02  -1.2151988127980928e-01  -1.9422195634170691e-01  -2.6286514949978823e-01  -3.2547485778081864e-01  -3.8015037534538010e-01  -4.2509337770292177e-01  -4.5863617678412538e-01  -4.7927040953823052e-01  -4.8567408981381277e-01  -4.7673490657359707e-01  -4.5156824905564008e-01  -4.0952317383744230e-01  -3.5018112404344492e-01  -2.7332237388782232e-01  -1.7895689884022659e-01  -6.7094658406290364e-02  -2.2316654168037076e-02  1.0338529814259800e-01  2.0936315299621810e-01  2.9512708638515051e-01  3.6077143703568026e-01  4.0662896907275581e-01  4.3334411959449426e-01  4.4183924930314333e-01  4.3329720952783646e-01  4.0913063456270038e-01  3.7094732167125244e-01  3.2051387162454148e-01  2.5972020702906207e-01  1.9054728052385883e-01  1.1504017769355812e-01  3.5286181632216085e-02  -4.6602046082548934e-02  -1.2849962735061382e-01  -2.0828142238008240e-01  -2.8383462486839051e-01  -3.5307347017953816e-01  -4.1395746766360730e-01  -4.6451351545502462e-01  -5.0286103231422885e-01  -5.2724184643585659e-01  -5.3605330303656729e-01  -5.2788284107487016e-01  -5.0154312200351114e-01  -4.5610075976247799e-01  -3.9090443749950055e-01  -3.0558269639954005e-01  -2.0011238918931440e-01  -7.4613041068516850e-02  4.4780625536304797e-03  1.4442271092912051e-01  2.6182604243768992e-01  3.5605334371564368e-01  4.2725152371855302e-01  4.7590683814678414e-01  5.0290931302606623e-01  5.0948452179744663e-01  4.9714830279782518e-01  4.6764999031557863e-01  4.2291641654907153e-01  3.6499994932682966e-01  2.9603419580644186e-01  2.1819987632034099e-01  1.3370208395242855e-01  4.4756309757154611e-02  -4.6418556881041163e-02  -1.3760296554977458e-01  -2.2657787334219393e-01  -3.1112600423585945e-01  -3.8903488680688270e-01  -4.5810438092917138e-01  -5.1616098861268256e-01  -5.6107987443465390e-01  -5.9081764722282060e-01  -6.0345441196329830e-01  -5.9724294842777681e-01  -5.7066398519333461e-01  -5.2247972886448224e-01  -4.5179222205587166e-01  -3.5806943737986785e-01  -2.4125114792423119e-01  -1.0154044497932091e-01  5.3280034281499411e-02  2.0829354376274978e-01  3.3748961721659043e-01  4.4009646722059870e-01  5.1634025567949493e-01  5.6689587138981778e-01  5.9294581367851151e-01  5.9607332408569391e-01  5.7818489219260982e-01  5.4142264335047230e-01  4.8808311453331044e-01  4.2054693225998108e-01  3.4122429241006103e-01  2.5251895244380762e-01  1.5681076897389801e-01  5.6451530910948122e-02  -4.6230207135553619e-02  -1.4891945011918750e-01  -2.4930311794751958e-01  -3.4505758153008514e-01  -4.3383731434352057e-01  -5.1326902678400188e-01  -5.8095615821002866e-01  -6.3449692396244473e-01  -6.7152044227617580e-01  -6.8973944022252454e-01  -6.8701681532184011e-01  -6.6144484840748419e-01  -6.1142779458464247e-01  -5.3577487505054933e-01  -4.3375616785215243e-01  -3.0525019451226854e-01  -1.5051334958064899e-01  1.2721168596510779e-01  2.9834662354221564e-01  4.3978204156775291e-01  5.5061663063747801e-01  6.3120009913336617e-01  6.8245990055197581e-01  7.0595273392365243e-01  7.0370938729485033e-01  6.7811589807814698e-01  6.3178737129595675e-01  5.6745681981260532e-01  4.8788449949751111e-01  3.9579295489880906e-01  2.9382987159158347e-01  1.8455734620577857e-01  7.0459759226991991e-02  -4.6036392654208891e-02  -1.6253652948737596e-01  -2.7664931402703985e-01  -3.8595645337605333e-01  -4.8798348048691764e-01  -5.8017766533819781e-01  -6.5990033781491775e-01  -7.2443895331326758e-01  -7.7104518671546884e-01  -7.9699823190435382e-01  -7.9969106791793365e-01  -7.7673891735605594e-01  -7.2609864550469183e-01  -6.4620554929723539e-01  -5.3606575637127207e-01  -3.9545485364749311e-01  -2.2465150251912291e-01  2.3001046813169523e-01  4.1854835105675647e-01  5.7273050605795106e-01  6.9152995703711895e-01  7.7548497814194661e-01  8.2587378128363298e-01  8.4475125433641551e-01  8.3472905093225336e-01  7.9880041814243441e-01  7.4016362414243986e-01  6.6207453889592216e-01  5.6773423712007798e-01  4.6021508235784836e-01  3.4242474346189056e-01  2.1710456681346102e-01  8.6852524196196157e-02  -4.5837484067452840e-02  -1.7852737861595358e-01  -3.0878272518884842e-01  -4.3411912866213243e-01  -5.5195100147315657e-01  -6.5955016731737715e-01  -7.5402290570326613e-01  -8.3231218731310719e-01  -8.9123375330274257e-01  -9.2754792005507625e-01  -9.3806756460071483e-01  -9.1980324718775819e-01  -8.7013134487585830e-01  -7.8698960560859632e-01  -6.6901921397709430e-01  -5.1583085644085713e-01  -3.2769394486228975e-01  3.6618097952771222e-01  5.7365718735934479e-01  7.4113526175995048e-01  8.6746118338430733e-01  9.5345648525062643e-01  1.0008956564185496e+00  1.0125125940019188e+00  9.9169001773270793e-01  9.4220586359779190e-01  8.6798958074973598e-01  7.7292984597357872e-01  6.6073943910134858e-01  5.3487620085715548e-01  3.9851351848918171e-01  2.5455283151583785e-01  1.0566659490125829e-01  -4.5636914763060796e-02  -1.9693565270584656e-01  -3.4581031560557562e-01  -4.8976069354156948e-01  -6.2612746209879333e-01  -7.5202725430500550e-01  -8.6430923153949379e-01  -9.5954058732525027e-01  -1.0340335317476388e+00  -1.0839213927092146e+00  -1.1052900538041399e+00  -1.0943690284860850e+00  -1.0477645035516616e+00  -9.6273574662109240e-01  -8.3740907307878842e-01  -6.7113924100522127e-01  -4.6415202196658356e-01  5.4118620363567516e-01  7.6944591561607467e-01  9.5079256258031819e-01  1.0839377280732378e+00  1.1701274532049410e+00  1.2118495813109575e+00  1.2127804634256449e+00  1.1773427275096537e+00  1.1103417781507687e+00  1.0166331400591844e+00  9.0087494269198487e-01  7.6737006813448261e-01  6.1998923539448469e-01  4.6215829607677961e-01  2.9689495784110420e-01  1.2688047220281362e-01  -4.5442265958961635e-02  -2.1775350790870363e-01  -3.8773466216288455e-01  -5.5294813176229241e-01  -7.1072610206752529e-01  -8.5807516260183547e-01  -9.9160326084404460e-01  -1.1074774243548973e+00  -1.2014310211874317e+00  -1.2688372486298931e+00  -1.3048640546284105e+00  -1.3047207511157239e+00  -1.2639759646482389e+00  -1.1789465053010417e+00  -1.0470199152846362e+00  -8.6715838075519969e-01  -6.3950139180280985e-01  7.6170647778599232e-01  1.0130037011778086e+00  1.2087952417532506e+00  1.3476460174279055e+00  1.4314438647586485e+00  1.4637198831006799e+00  1.4494817320313587e+00  1.3945735360340450e+00  1.3051572649918057e+00  1.1872649473066303e+00  1.0464870217882094e+00  8.8779587096126988e-01  7.1548410383940109e-01  5.3318612214278005e-01  3.4395649522720362e-01  1.5038451132490138e-01  -4.5264609411299797e-02  -2.4089098367325334e-01  -4.3439500991425462e-01  -6.2351575475992149e-01  -8.0567948295379210e-01  -9.7786297597968996e-01  -1.1364767217274903e+00  -1.2772789905488366e+00  -1.3953479026327500e+00  -1.4851400454425630e+00  -1.5406634487609381e+00  -1.5557856614715320e+00  -1.5246592494611377e+00  -1.4422693847437813e+00  -1.3049253956561415e+00  -1.1109861026491217e+00  -8.6044267287456933e-01  1.0360093073263670e+00  1.3131650459761204e+00  1.5239497312285266e+00  1.6667728999017299e+00  1.7445105621009134e+00  1.7622480904989288e+00  1.7269062942452820e+00  1.6462961018756914e+00  1.5283787486346228e+00  1.3806742484525785e+00  1.2098856760478611e+00  1.0217202789914381e+00  8.2086703918898252e-01  6.1107953492461320e-01  3.9532157218664565e-01  1.7594449799592837e-01  -4.5116887362739652e-02  -2.6613794197245255e-01  -4.8539539595424230e-01  -7.0096193487384539e-01  -9.1050657823919323e-01  -1.1111027007974599e+00  -1.2990491859240478e+00  -1.4697194250358052e+00  -1.6174750739486399e+00  -1.7356867862065428e+00  -1.8169050712032231e+00  -1.8532243447737073e+00  -1.8368415935216262e+00  -1.7608312267925612e+00  -1.6199012318377299e+00  -1.4114702266455197e+00  -1.1352747497872997e+00  1.3744994104338275e+00  1.6811440785005516e+00  1.9073753915180305e+00  2.0514705195112128e+00  2.1178674967270581e+00  2.1140134866885774e+00  2.0496219527645962e+00  1.9352514811693027e+00  1.7812506880616183e+00  1.5969972847593681e+00  1.3904809378342975e+00  1.1681648566765261e+00  9.3504766976298015e-01  6.9484752633019298e-01  4.5024771837978506e-01  2.0316000151848357e-01  -4.5012985786030246e-02  -2.9312212884592270e-01  -5.4002266990823955e-01  -7.8432594730620053e-01  -1.0241455350693514e+00  -1.2568368667671166e+00  -1.4787361552541824e+00  -1.6849171001288141e+00  -1.8690116020555934e+00  -2.0231452869794566e+00  -2.1380572056134497e+00  -2.2034979233227432e+00  -2.2089441388555997e+00  -2.1446902655371787e+00  -2.0030175736451383e+00  -1.7798444282594801e+00  -1.4744503453357538e+00  1.7905669431543174e+00  2.1315048943311012e+00  2.3734018613325816e+00  2.5145145101254229e+00  2.5618312309813973e+00  2.5264688432769162e+00  2.4222736794557704e+00  2.2636626882047040e+00  2.0641323571844623e+00  1.8353230934807243e+00  1.5866294347197822e+00  1.3251937118474189e+00  1.0561328578089615e+00  7.8288163115954035e-01  5.0757537643008277e-01  2.3142046659087612e-01  -4.4968775787408009e-02  -3.2126756889394414e-01  -5.9715837800078475e-01  -8.7204550829414984e-01  -1.1447479716276803e+00  -1.4131635995411216e+00  -1.6739076061184619e+00  -1.9219467418748764e+00  -2.1502682545877860e+00  -2.3496446195192675e+00  -2.5086213706498484e+00  -2.6138816427679785e+00  -2.6510990822073381e+00  -2.6064676244342309e+00  -2.4685162502896674e+00  -2.2306982819773111e+00  -1.8914288570998679e+00  2.3019054734104429e+00  2.6836836636165344e+00  2.9409411943157693e+00  3.0722419709376254e+00  3.0888968220494917e+00  3.0078623534127473e+00  2.8491748485203061e+00  2.6326607394706798e+00  2.3758923410067609e+00  2.0931432789355426e+00  1.7951836880066026e+00  1.4895745298360907e+00  1.1811908242110007e+00  8.7280397706831536e-01  5.6563908901966897e-01  2.5986351476335301e-01  -4.5004506755553647e-02  -3.4975621627827991e-01  -6.5518977486931362e-01  -9.6180218567030806e-01  -1.2694417857962890e+00  -1.5769010824659517e+00  -1.8814503122036399e+00  -2.1783105371848137e+00  -2.4600787513995783e+00  -2.7162158588358807e+00  -2.9327410803745124e+00  -3.0923761079794758e+00  -3.1754970784478473e+00  -3.1622266679385120e+00  -3.0351484152753301e+00  -2.7835009726227327e+00  -2.4040133769562999e+00  2.9326754778722943e+00  3.3644579777577519e+00  3.6355808129598017e+00  3.7458477111604225e+00  3.7141185598327411e+00  3.5668736345461411e+00  3.3335060463583659e+00  3.0413380640214882e+00  2.7130162037808532e+00  2.3656132213428123e+00  2.0109343191047628e+00  1.6563896261940840e+00  1.3060009363903760e+00  9.6132003315059933e-01  6.2218970798744522e-01  2.8734163214423347e-01  -4.5145841355262652e-02  -3.7749477238266138e-01  -7.1192890969732048e-01  -1.0503707432065426e+00  -1.3940814546070328e+00  -1.7432116218768670e+00  -2.0962405464730978e+00  -2.4492295498193357e+00  -2.7949350069003458e+00  -3.1218620370418648e+00  -3.4133284927314662e+00  -3.6471981213263689e+00  -3.7966810235055846e+00  -3.8327440198448812e+00  -3.7282251334751209e+00  -3.4650255643073251e+00  -3.0365305093712323e+00  3.7174640856700307e+00  4.2119509473964172e+00  4.4928912699275543e+00  4.5631377921887406e+00  4.4552547315021229e+00  4.2116282040673241e+00  3.8758052778238152e+00  3.4852102092839914e+00  3.0683179538822287e+00  2.6446006381496545e+00  2.2259702052024863e+00  1.8186390008385729e+00  1.4248278956662261e+00  1.0441037535567830e+00  6.7434468475968856e-01  3.1240666194787536e-01  -4.5420290994634169e-02  -4.0309170710857245e-01  -7.6455585147812144e-01  -1.1334995214349135e+00  -1.5130263972642410e+00  -1.9052248357489248e+00  -2.3105172940004195e+00  -2.7267015840702697e+00  -3.1477458613472891e+00  -3.5620431145081284e+00  -3.9506431720803903e+00  -4.2861145720322611e+00  -4.5318634831522786e+00  -4.6449795298786967e+00  -4.5826314963601362e+00  -4.3134891456719515e+00  -3.8236224017562108e+00  4.7062443045789450e+00  5.2829772053075885e+00  5.5639281912380056e+00  5.5607178555453629e+00  5.3321917211740129e+00  4.9474574104042404e+00  4.4712647154963179e+00  3.9538247892935487e+00  3.4291728991332775e+00  2.9175473271646979e+00  2.4290311396673587e+00  1.9669192441719474e+00  1.5302913213517400e+00  1.1157647314497865e+00  7.1859519750481127e-01  3.3332408987843110e-01  -4.5851300406287113e-02  -4.2486135669102509e-01  -8.0961923481862641e-01  -1.2058770295272723e+00  -1.619020222922984