<?xml version="1.0"?>
<VTKFile type="UnstructuredGrid"  version="0.1"  >
<UnstructuredGrid>
<Piece  NumberOfPoints="1089" NumberOfCells="2048">
<Points>
<DataArray  type="Float64"  NumberOfComponents="3"  format="ascii">0 0 0  0.03125 0 0  0.0625 0 0  0.09375 0 0  0.125 0 0  0.15625 0 0  0.1875 0 0  0.21875 0 0  0.25 0 0  0.28125 0 0  0.3125 0 0  0.34375 0 0  0.375 0 0  0.40625 0 0  0.4375 0 0  0.46875 0 0  0.5 0 0  0.53125 0 0  0.5625 0 0  0.59375 0 0  0.625 0 0  0.65625 0 0  0.6875 0 0  0.71875 0 0  0.75 0 0  0.78125 0 0  0.8125 0 0  0.84375 0 0  0.875 0 0  0.90625 0 0  0.9375 0 0  0.96875 0 0  1 0 0  0 0.03125 0  0.03125 0.03125 0  0.0625 0.03125 0  0.09375 0.03125 0  0.125 0.03125 0  0.15625 0.03125 0  0.1875 0.03125 0  0.21875 0.03125 0  0.25 0.03125 0  0.28125 0.03125 0  0.3125 0.03125 0  0.34375 0.03125 0  0.375 0.03125 0  0.40625 0.03125 0  0.4375 0.03125 0  0.46875 0.03125 0  0.5 0.03125 0  0.53125 0.03125 0  0.5625 0.03125 0  0.59375 0.03125 0  0.625 0.03125 0  0.65625 0.03125 0  0.6875 0.03125 0  0.71875 0.03125 0  0.75 0.03125 0  0.78125 0.03125 0  0.8125 0.03125 0  0.84375 0.03125 0  0.875 0.03125 0  0.90625 0.03125 0  0.9375 0.03125 0  0.96875 0.03125 0  1 0.03125 0  0 0.0625 0  0.03125 0.0625 0  0.0625 0.0625 0  0.09375 0.0625 0  0.125 0.0625 0  0.15625 0.0625 0  0.1875 0.0625 0  0.21875 0.0625 0  0.25 0.0625 0  0.28125 0.0625 0  0.3125 0.0625 0  0.34375 0.0625 0  0.375 0.0625 0  0.40625 0.0625 0  0.4375 0.0625 0  0.46875 0.0625 0  0.5 0.0625 0  0.53125 0.0625 0  0.5625 0.0625 0  0.59375 0.0625 0  0.625 0.0625 0  0.65625 0.0625 0  0.6875 0.0625 0  0.71875 0.0625 0  0.75 0.0625 0  0.78125 0.0625 0  0.8125 0.0625 0  0.84375 0.0625 0  0.875 0.0625 0  0.90625 0.0625 0  0.9375 0.0625 0  0.96875 0.0625 0  1 0.0625 0  0 0.09375 0  0.03125 0.09375 0  0.0625 0.09375 0  0.09375 0.09375 0  0.125 0.09375 0  0.15625 0.09375 0  0.1875 0.09375 0  0.21875 0.09375 0  0.25 0.09375 0  0.28125 0.09375 0  0.3125 0.09375 0  0.34375 0.09375 0  0.375 0.09375 0  0.40625 0.09375 0  0.4375 0.09375 0  0.46875 0.09375 0  0.5 0.09375 0  0.53125 0.09375 0  0.5625 0.09375 0  0.59375 0.09375 0  0.625 0.09375 0  0.65625 0.09375 0  0.6875 0.09375 0  0.71875 0.09375 0  0.75 0.09375 0  0.78125 0.09375 0  0.8125 0.09375 0  0.84375 0.09375 0  0.875 0.09375 0  0.90625 0.09375 0  0.9375 0.09375 0  0.96875 0.09375 0  1 0.09375 0  0 0.125 0  0.03125 0.125 0  0.0625 0.125 0  0.09375 0.125 0  0.125 0.125 0  0.15625 0.125 0  0.1875 0.125 0  0.21875 0.125 0  0.25 0.125 0  0.28125 0.125 0  0.3125 0.125 0  0.34375 0.125 0  0.375 0.125 0  0.40625 0.125 0  0.4375 0.125 0  0.46875 0.125 0  0.5 0.125 0  0.53125 0.125 0  0.5625 0.125 0  0.59375 0.125 0  0.625 0.125 0  0.65625 0.125 0  0.6875 0.125 0  0.71875 0.125 0  0.75 0.125 0  0.78125 0.125 0  0.8125 0.125 0  0.84375 0.125 0  0.875 0.125 0  0.90625 0.125 0  0.9375 0.125 0  0.96875 0.125 0  1 0.125 0  0 0.15625 0  0.03125 0.15625 0  0.0625 0.15625 0  0.09375 0.15625 0  0.125 0.15625 0  0.15625 0.15625 0  0.1875 0.15625 0  0.21875 0.15625 0  0.25 0.15625 0  0.28125 0.15625 0  0.3125 0.15625 0  0.34375 0.15625 0  0.375 0.15625 0  0.40625 0.15625 0  0.4375 0.15625 0  0.46875 0.15625 0  0.5 0.15625 0  0.53125 0.15625 0  0.5625 0.15625 0  0.59375 0.15625 0  0.625 0.15625 0  0.65625 0.15625 0  0.6875 0.15625 0  0.71875 0.15625 0  0.75 0.15625 0  0.78125 0.15625 0  0.8125 0.15625 0  0.84375 0.15625 0  0.875 0.15625 0  0.90625 0.15625 0  0.9375 0.15625 0  0.96875 0.15625 0  1 0.15625 0  0 0.1875 0  0.03125 0.1875 0  0.0625 0.1875 0  0.09375 0.1875 0  0.125 0.1875 0  0.15625 0.1875 0  0.1875 0.1875 0  0.21875 0.1875 0  0.25 0.1875 0  0.28125 0.1875 0  0.3125 0.1875 0  0.34375 0.1875 0  0.375 0.1875 0  0.40625 0.1875 0  0.4375 0.1875 0  0.46875 0.1875 0  0.5 0.1875 0  0.53125 0.1875 0  0.5625 0.1875 0  0.59375 0.1875 0  0.625 0.1875 0  0.65625 0.1875 0  0.6875 0.1875 0  0.71875 0.1875 0  0.75 0.1875 0  0.78125 0.1875 0  0.8125 0.1875 0  0.84375 0.1875 0  0.875 0.1875 0  0.90625 0.1875 0  0.9375 0.1875 0  0.96875 0.1875 0  1 0.1875 0  0 0.21875 0  0.03125 0.21875 0  0.0625 0.21875 0  0.09375 0.21875 0  0.125 0.21875 0  0.15625 0.21875 0  0.1875 0.21875 0  0.21875 0.21875 0  0.25 0.21875 0  0.28125 0.21875 0  0.3125 0.21875 0  0.34375 0.21875 0  0.375 0.21875 0  0.40625 0.21875 0  0.4375 0.21875 0  0.46875 0.21875 0  0.5 0.21875 0  0.53125 0.21875 0  0.5625 0.21875 0  0.59375 0.21875 0  0.625 0.21875 0  0.65625 0.21875 0  0.6875 0.21875 0  0.71875 0.21875 0  0.75 0.21875 0  0.78125 0.21875 0  0.8125 0.21875 0  0.84375 0.21875 0  0.875 0.21875 0  0.90625 0.21875 0  0.9375 0.21875 0  0.96875 0.21875 0  1 0.21875 0  0 0.25 0  0.03125 0.25 0  0.0625 0.25 0  0.09375 0.25 0  0.125 0.25 0  0.15625 0.25 0  0.1875 0.25 0  0.21875 0.25 0  0.25 0.25 0  0.28125 0.25 0  0.3125 0.25 0  0.34375 0.25 0  0.375 0.25 0  0.40625 0.25 0  0.4375 0.25 0  0.46875 0.25 0  0.5 0.25 0  0.53125 0.25 0  0.5625 0.25 0  0.59375 0.25 0  0.625 0.25 0  0.65625 0.25 0  0.6875 0.25 0  0.71875 0.25 0  0.75 0.25 0  0.78125 0.25 0  0.8125 0.25 0  0.84375 0.25 0  0.875 0.25 0  0.90625 0.25 0  0.9375 0.25 0  0.96875 0.25 0  1 0.25 0  0 0.28125 0  0.03125 0.28125 0  0.0625 0.28125 0  0.09375 0.28125 0  0.125 0.28125 0  0.15625 0.28125 0  0.1875 0.28125 0  0.21875 0.28125 0  0.25 0.28125 0  0.28125 0.28125 0  0.3125 0.28125 0  0.34375 0.28125 0  0.375 0.28125 0  0.40625 0.28125 0  0.4375 0.28125 0  0.46875 0.28125 0  0.5 0.28125 0  0.53125 0.28125 0  0.5625 0.28125 0  0.59375 0.28125 0  0.625 0.28125 0  0.65625 0.28125 0  0.6875 0.28125 0  0.71875 0.28125 0  0.75 0.28125 0  0.78125 0.28125 0  0.8125 0.28125 0  0.84375 0.28125 0  0.875 0.28125 0  0.90625 0.28125 0  0.9375 0.28125 0  0.96875 0.28125 0  1 0.28125 0  0 0.3125 0  0.03125 0.3125 0  0.0625 0.3125 0  0.09375 0.3125 0  0.125 0.3125 0  0.15625 0.3125 0  0.1875 0.3125 0  0.21875 0.3125 0  0.25 0.3125 0  0.28125 0.3125 0  0.3125 0.3125 0  0.34375 0.3125 0  0.375 0.3125 0  0.40625 0.3125 0  0.4375 0.3125 0  0.46875 0.3125 0  0.5 0.3125 0  0.53125 0.3125 0  0.5625 0.3125 0  0.59375 0.3125 0  0.625 0.3125 0  0.65625 0.3125 0  0.6875 0.3125 0  0.71875 0.3125 0  0.75 0.3125 0  0.78125 0.3125 0  0.8125 0.3125 0  0.84375 0.3125 0  0.875 0.3125 0  0.90625 0.3125 0  0.9375 0.3125 0  0.96875 0.3125 0  1 0.3125 0  0 0.34375 0  0.03125 0.34375 0  0.0625 0.34375 0  0.09375 0.34375 0  0.125 0.34375 0  0.15625 0.34375 0  0.1875 0.34375 0  0.21875 0.34375 0  0.25 0.34375 0  0.28125 0.34375 0  0.3125 0.34375 0  0.34375 0.34375 0  0.375 0.34375 0  0.40625 0.34375 0  0.4375 0.34375 0  0.46875 0.34375 0  0.5 0.34375 0  0.53125 0.34375 0  0.5625 0.34375 0  0.59375 0.34375 0  0.625 0.34375 0  0.65625 0.34375 0  0.6875 0.34375 0  0.71875 0.34375 0  0.75 0.34375 0  0.78125 0.34375 0  0.8125 0.34375 0  0.84375 0.34375 0  0.875 0.34375 0  0.90625 0.34375 0  0.9375 0.34375 0  0.96875 0.34375 0  1 0.34375 0  0 0.375 0  0.03125 0.375 0  0.0625 0.375 0  0.09375 0.375 0  0.125 0.375 0  0.15625 0.375 0  0.1875 0.375 0  0.21875 0.375 0  0.25 0.375 0  0.28125 0.375 0  0.3125 0.375 0  0.34375 0.375 0  0.375 0.375 0  0.40625 0.375 0  0.4375 0.375 0  0.46875 0.375 0  0.5 0.375 0  0.53125 0.375 0  0.5625 0.375 0  0.59375 0.375 0  0.625 0.375 0  0.65625 0.375 0  0.6875 0.375 0  0.71875 0.375 0  0.75 0.375 0  0.78125 0.375 0  0.8125 0.375 0  0.84375 0.375 0  0.875 0.375 0  0.90625 0.375 0  0.9375 0.375 0  0.96875 0.375 0  1 0.375 0  0 0.40625 0  0.03125 0.40625 0  0.0625 0.40625 0  0.09375 0.40625 0  0.125 0.40625 0  0.15625 0.40625 0  0.1875 0.40625 0  0.21875 0.40625 0  0.25 0.40625 0  0.28125 0.40625 0  0.3125 0.40625 0  0.34375 0.40625 0  0.375 0.40625 0  0.40625 0.40625 0  0.4375 0.40625 0  0.46875 0.40625 0  0.5 0.40625 0  0.53125 0.40625 0  0.5625 0.40625 0  0.59375 0.40625 0  0.625 0.40625 0  0.65625 0.40625 0  0.6875 0.40625 0  0.71875 0.40625 0  0.75 0.40625 0  0.78125 0.40625 0  0.8125 0.40625 0  0.84375 0.40625 0  0.875 0.40625 0  0.90625 0.40625 0  0.9375 0.40625 0  0.96875 0.40625 0  1 0.40625 0  0 0.4375 0  0.03125 0.4375 0  0.0625 0.4375 0  0.09375 0.4375 0  0.125 0.4375 0  0.15625 0.4375 0  0.1875 0.4375 0  0.21875 0.4375 0  0.25 0.4375 0  0.28125 0.4375 0  0.3125 0.4375 0  0.34375 0.4375 0  0.375 0.4375 0  0.40625 0.4375 0  0.4375 0.4375 0  0.46875 0.4375 0  0.5 0.4375 0  0.53125 0.4375 0  0.5625 0.4375 0  0.59375 0.4375 0  0.625 0.4375 0  0.65625 0.4375 0  0.6875 0.4375 0  0.71875 0.4375 0  0.75 0.4375 0  0.78125 0.4375 0  0.8125 0.4375 0  0.84375 0.4375 0  0.875 0.4375 0  0.90625 0.4375 0  0.9375 0.4375 0  0.96875 0.4375 0  1 0.4375 0  0 0.46875 0  0.03125 0.46875 0  0.0625 0.46875 0  0.09375 0.46875 0  0.125 0.46875 0  0.15625 0.46875 0  0.1875 0.46875 0  0.21875 0.46875 0  0.25 0.46875 0  0.28125 0.46875 0  0.3125 0.46875 0  0.34375 0.46875 0  0.375 0.46875 0  0.40625 0.46875 0  0.4375 0.46875 0  0.46875 0.46875 0  0.5 0.46875 0  0.53125 0.46875 0  0.5625 0.46875 0  0.59375 0.46875 0  0.625 0.46875 0  0.65625 0.46875 0  0.6875 0.46875 0  0.71875 0.46875 0  0.75 0.46875 0  0.78125 0.46875 0  0.8125 0.46875 0  0.84375 0.46875 0  0.875 0.46875 0  0.90625 0.46875 0  0.9375 0.46875 0  0.96875 0.46875 0  1 0.46875 0  0 0.5 0  0.03125 0.5 0  0.0625 0.5 0  0.09375 0.5 0  0.125 0.5 0  0.15625 0.5 0  0.1875 0.5 0  0.21875 0.5 0  0.25 0.5 0  0.28125 0.5 0  0.3125 0.5 0  0.34375 0.5 0  0.375 0.5 0  0.40625 0.5 0  0.4375 0.5 0  0.46875 0.5 0  0.5 0.5 0  0.53125 0.5 0  0.5625 0.5 0  0.59375 0.5 0  0.625 0.5 0  0.65625 0.5 0  0.6875 0.5 0  0.71875 0.5 0  0.75 0.5 0  0.78125 0.5 0  0.8125 0.5 0  0.84375 0.5 0  0.875 0.5 0  0.90625 0.5 0  0.9375 0.5 0  0.96875 0.5 0  1 0.5 0  0 0.53125 0  0.03125 0.53125 0  0.0625 0.53125 0  0.09375 0.53125 0  0.125 0.53125 0  0.15625 0.53125 0  0.1875 0.53125 0  0.21875 0.53125 0  0.25 0.53125 0  0.28125 0.53125 0  0.3125 0.53125 0  0.34375 0.53125 0  0.375 0.53125 0  0.40625 0.53125 0  0.4375 0.53125 0  0.46875 0.53125 0  0.5 0.53125 0  0.53125 0.53125 0  0.5625 0.53125 0  0.59375 0.53125 0  0.625 0.53125 0  0.65625 0.53125 0  0.6875 0.53125 0  0.71875 0.53125 0  0.75 0.53125 0  0.78125 0.531
[...]
<PointData  Vectors="u"> 
<DataArray  type="Float64"  Name="u"  NumberOfComponents="3" format="ascii">0.0000000000000000e+00 0.0000000000000000e+00 0.0000000000000000e+00  0.0000000000000000e+00 0.0000000000000000e+00 0.0000000000000000e+00  0.0000000000000000e+00 0.0000000000000000e+00 0.0000000000000000e+00  0.0000000000000000e+00 0.0000000000000000e+00 0.0000000000000000e+00  0.0000000000000000e+00 0.0000000000000000e+00 0.0000000000000000e+00  0.0000000000000000e+00 0.0000000000000000e+00 0.0000000000000000e+00  0.0000000000000000e+00 0.0000000000000000e+00 0.0000000000000000e+00  0.0000000000000000e+00 0.0000000000000000e+00 0.0000000000000000e+00  0.0000000000000000e+00 0.0000000000000000e+00 0.0000000000000000e+00  0.0000000000000000e+00 0.0000000000000000e+00 0.0000000000000000e+00  0.0000000000000000e+00 0.0000000000000000e+00 0.0000000000000000e+00  0.0000000000000000e+00 0.0000000000000000e+00 0.0000000000000000e+00  0.0000000000000000e+00 0.0000000000000000e+00 0.0000000000000000e+00  0.0000000000000000e+00 0.0000000000000000e+00 0.0000000000000000e+00  0.0000000000000000e+00 0.0000000000000000e+00 0.0000000000000000e+00  0.0000000000000000e+00 0.0000000000000000e+00 0.0000000000000000e+00  0.0000000000000000e+00 0.0000000000000000e+00 0.0000000000000000e+00  0.0000000000000000e+00 0.0000000000000000e+00 0.0000000000000000e+00  0.0000000000000000e+00 0.0000000000000000e+00 0.0000000000000000e+00  0.0000000000000000e+00 0.0000000000000000e+00 0.0000000000000000e+00  0.0000000000000000e+00 0.0000000000000000e+00 0.0000000000000000e+00  0.0000000000000000e+00 0.0000000000000000e+00 0.0000000000000000e+00  0.0000000000000000e+00 0.0000000000000000e+00 0.0000000000000000e+00  0.0000000000000000e+00 0.0000000000000000e+00 0.0000000000000000e+00  0.0000000000000000e+00 0.0000000000000000e+00 0.0000000000000000e+00  0.0000000000000000e+00 0.0000000000000000e+00 0.0000000000000000e+00  0.0000000000000000e+00 0.0000000000000000e+00 0.0000000000000000e+00  0.0000000000000000e+00 0.0000000000000000e+00 0.0000000000000000e+00  0.0000000000000000e+00 0.0000000000000000e+00 0.0000000000000000e+00  0.0000000000000000e+00 0.0000000000000000e+00 0.0000000000000000e+00  0.0000000000000000e+00 0.0000000000000000e+00 0.0000000000000000e+00  0.0000000000000000e+00 0.0000000000000000e+00 0.0000000000000000e+00  0.0000000000000000e+00 0.0000000000000000e+00 0.0000000000000000e+00  0.0000000000000000e+00 0.0000000000000000e+00 0.0000000000000000e+00  4.4752688713027263e-05 -4.3967162504006109e-05 0.0000000000000000e+00  -1.2221562457630404e-04 1.5719130013820554e-04 0.0000000000000000e+00  -7.2991794923079212e-04 4.1656435393203127e-04 0.0000000000000000e+00  -1.8070911248248079e-03 6.5992929863411306e-04 0.0000000000000000e+00  -3.2989053860900596e-03 8.5936807117053659e-04 0.0000000000000000e+00  -5.1145930420747037e-03 1.0041739601861967e-03 0.0000000000000000e+00  -7.1493505268071748e-03 1.0917282093267327e-03 0.0000000000000000e+00  -9.2961942930752800e-03 1.1234514704150931e-03 0.0000000000000000e+00  -1.1452223010784812e-02 1.1030270822601331e-03 0.0000000000000000e+00  -1.3522384155967213e-02 1.0355111136620785e-03 0.0000000000000000e+00  -1.5421821747875984e-02 9.2681475304002734e-04 0.0000000000000000e+00  -1.7077354887967508e-02 7.8337810961748658e-04 0.0000000000000000e+00  -1.8428394055810843e-02 6.1195401360752608e-04 0.0000000000000000e+00  -1.9427481919672765e-02 4.1946522015738499e-04 0.0000000000000000e+00  -2.0040589111553445e-02 2.1291553071228051e-04 0.0000000000000000e+00  -2.0247259105431979e-02 -6.5921673597898502e-07 0.0000000000000000e+00  -2.0040668359209264e-02 -2.1421325255988136e-04 0.0000000000000000e+00  -1.9427641625047599e-02 -4.2069959117502654e-04 0.0000000000000000e+00  -1.8428635790656758e-02 -6.1307926168026143e-04 0.0000000000000000e+00  -1.7077678522200459e-02 -7.8434461249267038e-04 0.0000000000000000e+00  -1.5422222212166279e-02 -9.2756927071946046e-04 0.0000000000000000e+00  -1.3522848092672051e-02 -1.0359968390573674e-03 0.0000000000000000e+00  -1.1452726871678025e-02 -1.1031829320570280e-03 0.0000000000000000e+00  -9.2967016260406543e-03 -1.1232098438536259e-03 0.0000000000000000e+00  -7.1498116794412045e-03 -1.0910110332696676e-03 0.0000000000000000e+00  -5.1149470899351738e-03 -1.0028887459809115e-03 0.0000000000000000e+00  -3.2990729130781132e-03 -8.5741542477113725e-04 0.0000000000000000e+00  -1.8069805416277935e-03 -6.5724613809067800e-04 0.0000000000000000e+00  -7.2959817616449329e-04 -4.1311151558009806e-04 0.0000000000000000e+00  -1.2200206170500999e-04 -1.5416302301970492e-04 0.0000000000000000e+00  4.5223363124371118e-05 4.4589671244875482e-05 0.0000000000000000e+00  0.0000000000000000e+00 0.0000000000000000e+00 0.0000000000000000e+00  0.0000000000000000e+00 0.0000000000000000e+00 0.0000000000000000e+00  -1.5216812545355927e-04 1.1996112210257031e-04 0.0000000000000000e+00  -8.3356209331019934e-04 8.4086440496007608e-04 0.0000000000000000e+00  -2.2449325559267055e-03 1.7274391598006682e-03 0.0000000000000000e+00  -4.4073720047762121e-03 2.5698414754808541e-03 0.0000000000000000e+00  -7.2400959269609023e-03 3.2689508808721513e-03 0.0000000000000000e+00  -1.0601907228241721e-02 3.7810266560933943e-03 0.0000000000000000e+00  -1.4322898646294208e-02 4.0911891365474065e-03 0.0000000000000000e+00  -1.8223775737614443e-02 4.2006234084853459e-03 0.0000000000000000e+00  -2.2128095606861166e-02 4.1201435720483294e-03 0.0000000000000000e+00  -2.5870251007581207e-02 3.8666066031021362e-03 0.0000000000000000e+00  -2.9300693088537066e-02 3.4607422491491828e-03 0.0000000000000000e+00  -3.2289366809896913e-02 2.9257474951384422e-03 0.0000000000000000e+00  -3.4727931600873507e-02 2.2863418797799632e-03 0.0000000000000000e+00  -3.6531148934973369e-02 1.5681335082062058e-03 0.0000000000000000e+00  -3.7637706600464768e-02 7.9720916016713704e-04 0.0000000000000000e+00  -3.8010673065852589e-02 -1.1409341060394457e-07 0.0000000000000000e+00  -3.7637716555574449e-02 -7.9743012933536990e-04 0.0000000000000000e+00  -3.6531169263185996e-02 -1.5683316178605677e-03 0.0000000000000000e+00  -3.4727963204882632e-02 -2.2864988722500201e-03 0.0000000000000000e+00  -3.2289409728309092e-02 -2.9258435116160902e-03 0.0000000000000000e+00  -2.9300743111320238e-02 -3.4607588656212695e-03 0.0000000000000000e+00  -2.5870295601986837e-02 -3.8665310844780598e-03 0.0000000000000000e+00  -2.2128111981703984e-02 -4.1199730196012172e-03 0.0000000000000000e+00  -1.8223728541020355e-02 -4.2003683635782009e-03 0.0000000000000000e+00  -1.4322746407068021e-02 -4.0908778039801200e-03 0.0000000000000000e+00  -1.0601609528661847e-02 -3.7807132322949079e-03 0.0000000000000000e+00  -7.2396522784181887e-03 -3.2687313244346311e-03 0.0000000000000000e+00  -4.4068482332682238e-03 -2.5698962822791132e-03 0.0000000000000000e+00  -2.2442434316752155e-03 -1.7279303950726308e-03 0.0000000000000000e+00  -8.3393213008322014e-04 -8.4164624448990536e-04 0.0000000000000000e+00  -1.4930929878338543e-04 -1.1990239119589003e-04 0.0000000000000000e+00  0.0000000000000000e+00 0.0000000000000000e+00 0.0000000000000000e+00  0.0000000000000000e+00 0.0000000000000000e+00 0.0000000000000000e+00  -4.1142320379425638e-04 7.2200626761642248e-04 0.0000000000000000e+00  -1.7321841641282955e-03 2.2581219476142710e-03 0.0000000000000000e+00  -4.0433570491091222e-03 4.0228544078731703e-03 0.0000000000000000e+00  -7.3116975866631129e-03 5.6867768741139680e-03 0.0000000000000000e+00  -1.1417543246738998e-02 7.0712747605306946e-03 0.0000000000000000e+00  -1.6178684508333555e-02 8.0869003574849854e-03 0.0000000000000000e+00  -2.1378311021444829e-02 8.6975556109055545e-03 0.0000000000000000e+00  -2.6785445130787726e-02 8.9001884712091132e-03 0.0000000000000000e+00  -3.2170272021179884e-02 8.7129100237831082e-03 0.0000000000000000e+00  -3.7315000395788250e-02 8.1677061417094118e-03 0.0000000000000000e+00  -4.2021453358694241e-02 7.3057331785224130e-03 0.0000000000000000e+00  -4.6116282881385758e-02 6.1741433233297909e-03 0.0000000000000000e+00  -4.9454456740330721e-02 4.8238976480320878e-03 0.0000000000000000e+00  -5.1921508654165213e-02 3.3082674416655151e-03 0.0000000000000000e+00  -5.3434921888821450e-02 1.6818371436526445e-03 0.0000000000000000e+00  -5.3944923032340900e-02 -1.3104798203956140e-07 0.0000000000000000e+00  -5.3434880305899247e-02 -1.6820944998234006e-03 0.0000000000000000e+00  -5.1921424024401849e-02 -3.3085088326611878e-03 0.0000000000000000e+00  -4.9454328050531828e-02 -4.8241077710605091e-03 0.0000000000000000e+00  -4.6116110673103866e-02 -6.1743033712444587e-03 0.0000000000000000e+00  -4.2021238093931518e-02 -7.3058245410738314e-03 0.0000000000000000e+00  -3.7314739066626593e-02 -8.1677158392762794e-03 0.0000000000000000e+00  -3.2169956432058874e-02 -8.7128362245770079e-03 0.0000000000000000e+00  -2.6785058850352608e-02 -8.9000440942676642e-03 0.0000000000000000e+00  -2.1377839037321131e-02 -8.6973683185777063e-03 0.0000000000000000e+00  -1.6178123420267729e-02 -8.0867101660918334e-03 0.0000000000000000e+00  -1.1416910694933129e-02 -7.0711143195173612e-03 0.0000000000000000e+00  -7.3111211445512133e-03 -5.6866396370981566e-03 0.0000000000000000e+00  -4.0426162017894902e-03 -4.0227153328405351e-03 0.0000000000000000e+00  -1.7320709342096641e-03 -2.2578478320403367e-03 0.0000000000000000e+00  -4.0813230518591719e-04 -7.2179718709042186e-04 0.0000000000000000e+00  0.0000000000000000e+00 0.0000000000000000e+00 0.0000000000000000e+00  0.0000000000000000e+00 0.0000000000000000e+00 0.0000000000000000e+00  -6.7167335496197064e-04 1.8124397785069363e-03 0.0000000000000000e+00  -2.6540017281977690e-03 4.4761406908776658e-03 0.0000000000000000e+00  -5.8915459820327223e-03 7.3401139306267489e-03 0.0000000000000000e+00  -1.0269727482727184e-02 9.9919462585260320e-03 0.0000000000000000e+00  -1.5612542674663582e-02 1.2184883796781922e-02 0.0000000000000000e+00  -2.1692416636203204e-02 1.3784195532654721e-02 0.0000000000000000e+00  -2.8250012941449881e-02 1.4730248744730987e-02 0.0000000000000000e+00  -3.5012220103774631e-02 1.5014142526036832e-02 0.0000000000000000e+00  -4.1707658623372869e-02 1.4661566542683854e-02 0.0000000000000000e+00  -4.8078645287859330e-02 1.3721917083100063e-02 0.0000000000000000e+00  -5.3890108334441481e-02 1.2260744944177030e-02 0.0000000000000000e+00  -5.8935950987702830e-02 1.0354411414449623e-02 0.0000000000000000e+00  -6.3043425198735320e-02 8.0862903070678827e-03 0.0000000000000000e+00  -6.6076006651036676e-02 5.5441055401713049e-03 0.0000000000000000e+00  -6.7935186600368222e-02 2.8181203116284062e-03 0.0000000000000000e+00  -6.8561511261693353e-02 -5.1716479199333986e-08 0.0000000000000000e+00  -6.7935107958480664e-02 -2.8182237049709132e-03 0.0000000000000000e+00  -6.6075845527753196e-02 -5.5442071963435159e-03 0.0000000000000000e+00  -6.3043177758731223e-02 -8.0863846727716997e-03 0.0000000000000000e+00  -5.8935617575736156e-02 -1.0354489049926707e-02 0.0000000000000000e+00  -5.3889694452945440e-02 -1.2260795388401814e-02 0.0000000000000000e+00  -4.8078159537038256e-02 -1.3721933554379185e-02 0.0000000000000000e+00  -4.1707111133142752e-02 -1.4661551297744121e-02 0.0000000000000000e+00  -3.5011617244494322e-02 -1.5014110434036946e-02 0.0000000000000000e+00  -2.8249361771278781e-02 -1.4730225672527117e-02 0.0000000000000000e+00  -2.1691735390131427e-02 -1.3784210878509954e-02 0.0000000000000000e+00  -1.5611835973686636e-02 -1.2184957176077586e-02 0.0000000000000000e+00  -1.0269070990893921e-02 -9.9920542818194343e-03 0.0000000000000000e+00  -5.8907094332794081e-03 -7.3401915585259523e-03 0.0000000000000000e+00  -2.6533916191382265e-03 -4.4760614348221600e-03 0.0000000000000000e+00  -6.6906311239552357e-04 -1.8123722884286399e-03 0.0000000000000000e+00  0.0000000000000000e+00 0.0000000000000000e+00 0.0000000000000000e+00  0.0000000000000000e+00 0.0000000000000000e+00 0.0000000000000000e+00  -9.1733751540586453e-04 3.3819944728353864e-03 0.0000000000000000e+00  -3.5431535505745064e-03 7.5006329444769013e-03 0.0000000000000000e+00  -7.6978564300913647e-03 1.1684263263552272e-02 0.0000000000000000e+00  -1.3175364668785845e-02 1.5471141392597136e-02 0.0000000000000000e+00  -1.9731138478680476e-02 1.8565281912387974e-02 0.0000000000000000e+00  -2.7084506678058617e-02 2.0795620842565851e-02 0.0000000000000000e+00  -3.4931522669605877e-02 2.2082899979264891e-02 0.0000000000000000e+00  -4.2959568181274423e-02 2.2414535406348714e-02 0.0000000000000000e+00  -5.0861384500784229e-02 2.1825952337888591e-02 0.0000000000000000e+00  -5.8346764055868992e-02 2.0386774659683644e-02 0.0000000000000000e+00  -6.5151700128858209e-02 1.8190561632196855e-02 0.0000000000000000e+00  -7.1045105649395174e-02 1.5347193931634881e-02 0.0000000000000000e+00  -7.5833503522625828e-02 1.1977288473218167e-02 0.0000000000000000e+00  -7.9364116737251689e-02 8.2082003555392791e-03 0.0000000000000000e+00  -8.1526780696192708e-02 4.1712613840034036e-03 0.0000000000000000e+00  -8.2255036590182781e-02 -5.9817658480906493e-08 0.0000000000000000e+00  -8.1526675199240894e-02 -4.1713811116635153e-03 0.0000000000000000e+00  -7.9363900708569357e-02 -8.2083199495908560e-03 0.0000000000000000e+00  -7.5833171661716214e-02 -1.1977406537499931e-02 0.0000000000000000e+00  -7.1044658273568234e-02 -1.5347307224986445e-02 0.0000000000000000e+00  -6.5151146218771272e-02 -1.8190665118241085e-02 0.0000000000000000e+00  -5.8346120875892388e-02 -2.0386863010098111e-02 0.0000000000000000e+00  -5.0860676537156424e-02 -2.1826022722016419e-02 0.0000000000000000e+00  -4.2958820135193282e-02 -2.2414590286150834e-02 0.0000000000000000e+00  -3.4930756488430345e-02 -2.2082946818149270e-02 0.0000000000000000e+00  -2.7083745066457679e-02 -2.0795664849602130e-02 0.0000000000000000e+00  -1.9730376141531607e-02 -1.8565316693611916e-02 0.0000000000000000e+00  -1.3174617480286106e-02 -1.5471140001332324e-02 0.0000000000000000e+00  -7.6969474750423691e-03 -1.1684202548154502e-02 0.0000000000000000e+00  -3.5422698085103756e-03 -7.5005307079878481e-03 0.0000000000000000e+00  -9.1526619773581001e-04 -3.3820472826857268e-03 0.0000000000000000e+00  0.0000000000000000e+00 0.0000000000000000e+00 0.0000000000000000e+00  0.0000000000000000e+00 0.0000000000000000e+00 0.0000000000000000e+00  -1.1475863020715717e-03 5.4063435407167978e-03 0.0000000000000000e+00  -4.3907637460493289e-03 1.1311226574610032e-02 0.0000000000000000e+00  -9.4421899420671154e-03 1.7041349882697000e-02 0.0000000000000000e+00  -1.6003596232465965e-02 2.2108609612646237e-02 0.0000000000000000e+00  -2.3755432263930516e-02 2.6185919307490566e-02 0.0000000000000000e+00  -3.2357090920303908e-02 2.9078281218028496e-02 0.0000000000000000e+00  -4.1455863431886807e-02 3.0694990985455729e-02 0.0000000000000000e+00  -5.0698746854873987e-02 3.1025534767255756e-02 0.0000000000000000e+00  -5.9744561428629238e-02 3.0119686515442078e-02 0.0000000000000000e+00  -6.8274569288292203e-02 2.8071499620850468e-02 0.0000000000000000e+00  -7.6001000265700974e-02 2.5006657745073688e-02 0.0000000000000000e+00  -8.2673369580718706e-02 2.1072680923462598e-02 0.0000000000000000e+00  -8.8082855679458977e-02 1.6431540711605453e-02 0.0000000000000000e+00  -9.2065108352157310e-02 1.1254289497855211e-02 0.0000000000000000e+00  -9.4501908356072167e-02 5.7173243218192260e-03 0.0000000000000000e+00  -9.5322055452378637e-02 -1.0198830953088116e-07 0.0000000000000000e+00  -9.4501776685356018e-02 -5.7175239023476692e-03 0.0000000000000000e+00  -9.2064842079611131e-02 -1.1254477868502834e-02 0.0000000000000000e+00  -8.8082452512988269e-02 -1.6431715393524886e-02 0.0000000000000000e+00  -8.2672832328505350e-02 -2.1072843133775925e-02 0.0000000000000000e+00  -7.6000339914183535e-02 -2.5006809045320152e-02 0.0000000000000000e+00  -6.8273806323236499e-02 -2.8071638673132896e-02 0.0000000000000000e+00  -5.9743726616572831e-02 -3.0119808136333120e-02 0.0000000000000000e+00  -5.0697874522930196e-02 -3.1025631568039211e-02 0.0000000000000000e+00  -4.1454985163644514e-02 -3.0695056030782236e-02 0.0000000000000000e+00  -3.2356229642163330e-02 -2.9078307999327098e-02 0.0000000000000000e+00  -2.3754580257106403e-02 -2.6185900282813108e-02 0.0000000000000000e+00  -1.6002739380684597e-02 -2.2108536876208482e-02 0.0000000000000000e+00  -9.4412069855090049e-03 -1.7041231590037089e-02 0.0000000000000000e+00  -4.3897932665137654e-03 -1.1311118429794454e-02 0.0000000000000000e+00  -1.1459134632004035e-03 -5.4064092255021656e-03 0.0000000000000000e+00  0.0000000000000000e+00 0.0000000000000000e+00 0.0000000000000000e+00  0.0000000000000000e+00 0.0000000000000000e+00 0.0000000000000000e+00  -1.3667981749685247e-03 7.8630170326417417e-03 0.0000000000000000e+00  -5.2068010724211945e-03 1.5884952604027266e-02 0.0000000000000000e+00  -1.1137517232616183e-02 2.3394870967622078e-02 0.0000000000000000e+00  -1.8770863431513456e-02 2.9891628832391028e-02 0.0000000000000000e+00  -2.7709091376907621e-02 3.5031838073132877e-02 0.0000000000000000e+00  -3.7546540785851373e-02 3.8609589409134441e-02 0.0000000000000000e+00  -4.7877519331237725e-02 4.0533289817453626e-02 0.0000000000000000e+00  -5.8306472502428285e-02 4.0802965668237462e-02 0.0000000000000000e+00  -6.8458434205804872e-02 3.9489686763071838e-02 0.0000000000000000e+00  -7.7988234746134491e-02 3.6717804077451927e-02 0.0000000000000000e+00  -8.6587820769276472e-02 3.2650184161598698e-02 0.0000000000000000e+00  -9.3991525854868321e-02 2.7476380043922506e-02 0.0000000000000000e+00  -9.9979523510697346e-02 2.1403532704742413e-02 0.0000000000000000e+00  -1.0437982664889228e-01 1.4649702465382575e-02 0.0000000000000000e+00  -1.0706927577000437e-01 7.4392491856642247e-03 0.0000000000000000e+00  -1.0797392017777294e-01 -1.8783033980130436e-07 0.0000000000000000e+00  -1.0706910889183434e-01 -7.4396119814428927e-03 0.0000000000000000e+00  -1.0437949677646759e-01 -1.4650031172478950e-02 0.0000000000000000e+00  -9.9979038075573776e-02 -2.1403816990827076e-02 0.0000000000000000e+00  -9.3990895369284483e-02 -2.7476620659567283e-02 0.0000000000000000e+00  -8.6587059049033743e-02 -3.2650387476562341e-02 0.0000000000000000e+00  -7.7987361251303580e-02 -3.6717974575586523e-02 0.0000000000000000e+00  -6.8457478422770585e-02 -3.9489822074235327e-02 0.0000000000000000e+00  -5.8305470044642260e-02 -4.0803056339119646e-02 0.0000000000000000e+00  -4.7876506607010122e-02 -4.0533322900082783e-02 0.0000000000000000e+00  -3.7545544141470481e-02 -3.8609553766926916e-02 0.0000000000000000e+00  -2.7708110012668236e-02 -3.5031730167057074e-02 0.0000000000000000e+00  -1.8769884400697039e-02 -2.9891460677293105e-02 0.0000000000000000e+00  -1.1136460414753246e-02 -2.3394681817867042e-02 0.0000000000000000e+00  -5.2058085322528903e-03 -1.5884811675933672e-02 0.0000000000000000e+00  -1.3653615229925926e-03 -7.8630204028767737e-03 0.0000000000000000e+00  0.0000000000000000e+00 0.0000000000000000e+00 0.0000000000000000e+00  0.0000000000000000e+00 0.0000000000000000e+00 0.0000000000000000e+00  -1.5806721887392915e-03 1.0737980225396510e-02 0.0000000000000000e+00  -6.0076077241258026e-03 2.1206787182500141e-02 0.0000000000000000e+00  -1.2810119852872510e-02 3.0734529055300958e-02 0.0000000000000000e+00  -2.1511917769762225e-02 3.8813995441983155e-02 0.0000000000000000e+00  -3.1634857793031011e-02 4.5096973798256036e-02 0.0000000000000000e+00  -4.2704278340462941e-02 4.9379124245541778e-02 0.0000000000000000e+00  -5.4257814048942248e-02 5.1579761249785167e-02 0.0000000000000000e+00  -6.5855087497355067e-02 5.1719921275321774e-02 0.0000000000000000e+00  -7.7086961250121822e-02 4.9900960091846108e-02 0.0000000000000000e+00  -8.7583246583641125e-02 4.6285065460963649e-02 0.0000000000000000e+00  -9.7018416030284174e-02 4.1078454757149219e-02 0.0000000000000000e+00  -1.0511527541036307e-01 3.4517610065707700e-02 0.0000000000000000e+00  -1.1164691158396199e-01 2.6858588437163954e-02 0.0000000000000000e+00  -1.1643734960487839e-01 1.8369213095231547e-02 0.0000000000000000e+00  -1.1936142632201723e-01 9.3